% Model:              circ_pt.mph
% Version:            COMSOL 6.0.0.318
% Date:               Sep 23 2022, 10:48
% Table:              水平振动 - 点计算 2
% sqrt(abs(solid.I2s))*sign(solid.I2s) (Pa), 点: (25, 0)sqrt(abs(solid.I2s))*sign(solid.I2s) (Pa), 点: (24.996, -0.43631)sqrt(abs(solid.I2s))*sign(solid.I2s) (Pa), 点: (24.985, -0.87249)sqrt(abs(solid.I2s))*sign(solid.I2s) (Pa), 点: (24.966, -1.3084)sqrt(abs(solid.I2s))*sign(solid.I2s) (Pa), 点: (24.939, -1.7439)sqrt(abs(solid.I2s))*sign(solid.I2s) (Pa), 点: (24.905, -2.1789)sqrt(abs(solid.I2s))*sign(solid.I2s) (Pa), 点: (24.863, -2.6132)sqrt(abs(solid.I2s))*sign(solid.I2s) (Pa), 点: (24.814, -3.0467)sqrt(abs(solid.I2s))*sign(solid.I2s) (Pa), 点: (24.757, -3.4793)sqrt(abs(solid.I2s))*sign(solid.I2s) (Pa), 点: (24.692, -3.9109)sqrt(abs(solid.I2s))*sign(solid.I2s) (Pa), 点: (24.62, -4.3412)sqrt(abs(solid.I2s))*sign(solid.I2s) (Pa), 点: (24.541, -4.7702)sqrt(abs(solid.I2s))*sign(solid.I2s) (Pa), 点: (24.454, -5.1978)sqrt(abs(solid.I2s))*sign(solid.I2s) (Pa), 点: (24.359, -5.6238)sqrt(abs(solid.I2s))*sign(solid.I2s) (Pa), 点: (24.257, -6.048)sqrt(abs(solid.I2s))*sign(solid.I2s) (Pa), 点: (24.148, -6.4705)sqrt(abs(solid.I2s))*sign(solid.I2s) (Pa), 点: (24.032, -6.8909)sqrt(abs(solid.I2s))*sign(solid.I2s) (Pa), 点: (23.908, -7.3093)sqrt(abs(solid.I2s))*sign(solid.I2s) (Pa), 点: (23.776, -7.7254)sqrt(abs(solid.I2s))*sign(solid.I2s) (Pa), 点: (23.638, -8.1392)sqrt(abs(solid.I2s))*sign(solid.I2s) (Pa), 点: (23.492, -8.5505)sqrt(abs(solid.I2s))*sign(solid.I2s) (Pa), 点: (23.34, -8.9592)sqrt(abs(solid.I2s))*sign(solid.I2s) (Pa), 点: (23.18, -9.3652)sqrt(abs(solid.I2s))*sign(solid.I2s) (Pa), 点: (23.013, -9.7683)sqrt(abs(solid.I2s))*sign(solid.I2s) (Pa), 点: (22.839, -10.168)sqrt(abs(solid.I2s))*sign(solid.I2s) (Pa), 点: (22.658, -10.565)sqrt(abs(solid.I2s))*sign(solid.I2s) (Pa), 点: (22.47, -10.959)sqrt(abs(solid.I2s))*sign(solid.I2s) (Pa), 点: (22.275, -11.35)sqrt(abs(solid.I2s))*sign(solid.I2s) (Pa), 点: (22.074, -11.737)sqrt(abs(solid.I2s))*sign(solid.I2s) (Pa), 点: (21.865, -12.12)sqrt(abs(solid.I2s))*sign(solid.I2s) (Pa), 点: (21.651, -12.5)sqrt(abs(solid.I2s))*sign(solid.I2s) (Pa), 点: (21.429, -12.876)sqrt(abs(solid.I2s))*sign(solid.I2s) (Pa), 点: (21.201, -13.248)sqrt(abs(solid.I2s))*sign(solid.I2s) (Pa), 点: (20.967, -13.616)sqrt(abs(solid.I2s))*sign(solid.I2s) (Pa), 点: (20.726, -13.98)sqrt(abs(solid.I2s))*sign(solid.I2s) (Pa), 点: (20.479, -14.339)sqrt(abs(solid.I2s))*sign(solid.I2s) (Pa), 点: (20.225, -14.695)sqrt(abs(solid.I2s))*sign(solid.I2s) (Pa), 点: (19.966, -15.045)sqrt(abs(solid.I2s))*sign(solid.I2s) (Pa), 点: (19.7, -15.392)sqrt(abs(solid.I2s))*sign(solid.I2s) (Pa), 点: (19.429, -15.733)sqrt(abs(solid.I2s))*sign(solid.I2s) (Pa), 点: (19.151, -16.07)sqrt(abs(solid.I2s))*sign(solid.I2s) (Pa), 点: (18.868, -16.401)sqrt(abs(solid.I2s))*sign(solid.I2s) (Pa), 点: (18.579, -16.728)sqrt(abs(solid.I2s))*sign(solid.I2s) (Pa), 点: (18.284, -17.05)sqrt(abs(solid.I2s))*sign(solid.I2s) (Pa), 点: (17.983, -17.366)sqrt(abs(solid.I2s))*sign(solid.I2s) (Pa), 点: (17.678, -17.678)sqrt(abs(solid.I2s))*sign(solid.I2s) (Pa), 点: (17.366, -17.983)sqrt(abs(solid.I2s))*sign(solid.I2s) (Pa), 点: (17.05, -18.284)sqrt(abs(solid.I2s))*sign(solid.I2s) (Pa), 点: (16.728, -18.579)sqrt(abs(solid.I2s))*sign(solid.I2s) (Pa), 点: (16.401, -18.868)sqrt(abs(solid.I2s))*sign(solid.I2s) (Pa), 点: (16.07, -19.151)sqrt(abs(solid.I2s))*sign(solid.I2s) (Pa), 点: (15.733, -19.429)sqrt(abs(solid.I2s))*sign(solid.I2s) (Pa), 点: (15.392, -19.7)sqrt(abs(solid.I2s))*sign(solid.I2s) (Pa), 点: (15.045, -19.966)sqrt(abs(solid.I2s))*sign(solid.I2s) (Pa), 点: (14.695, -20.225)sqrt(abs(solid.I2s))*sign(solid.I2s) (Pa), 点: (14.339, -20.479)sqrt(abs(solid.I2s))*sign(solid.I2s) (Pa), 点: (13.98, -20.726)sqrt(abs(solid.I2s))*sign(solid.I2s) (Pa), 点: (13.616, -20.967)sqrt(abs(solid.I2s))*sign(solid.I2s) (Pa), 点: (13.248, -21.201)sqrt(abs(solid.I2s))*sign(solid.I2s) (Pa), 点: (12.876, -21.429)sqrt(abs(solid.I2s))*sign(solid.I2s) (Pa), 点: (12.5, -21.651)sqrt(abs(solid.I2s))*sign(solid.I2s) (Pa), 点: (12.12, -21.865)sqrt(abs(solid.I2s))*sign(solid.I2s) (Pa), 点: (11.737, -22.074)sqrt(abs(solid.I2s))*sign(solid.I2s) (Pa), 点: (11.35, -22.275)sqrt(abs(solid.I2s))*sign(solid.I2s) (Pa), 点: (10.959, -22.47)sqrt(abs(solid.I2s))*sign(solid.I2s) (Pa), 点: (10.565, -22.658)sqrt(abs(solid.I2s))*sign(solid.I2s) (Pa), 点: (10.168, -22.839)sqrt(abs(solid.I2s))*sign(solid.I2s) (Pa), 点: (9.7683, -23.013)sqrt(abs(solid.I2s))*sign(solid.I2s) (Pa), 点: (9.3652, -23.18)sqrt(abs(solid.I2s))*sign(solid.I2s) (Pa), 点: (8.9592, -23.34)sqrt(abs(solid.I2s))*sign(solid.I2s) (Pa), 点: (8.5505, -23.492)sqrt(abs(solid.I2s))*sign(solid.I2s) (Pa), 点: (8.1392, -23.638)sqrt(abs(solid.I2s))*sign(solid.I2s) (Pa), 点: (7.7254, -23.776)sqrt(abs(solid.I2s))*sign(solid.I2s) (Pa), 点: (7.3093, -23.908)sqrt(abs(solid.I2s))*sign(solid.I2s) (Pa), 点: (6.8909, -24.032)sqrt(abs(solid.I2s))*sign(solid.I2s) (Pa), 点: (6.4705, -24.148)sqrt(abs(solid.I2s))*sign(solid.I2s) (Pa), 点: (6.048, -24.257)sqrt(abs(solid.I2s))*sign(solid.I2s) (Pa), 点: (5.6238, -24.359)sqrt(abs(solid.I2s))*sign(solid.I2s) (Pa), 点: (5.1978, -24.454)sqrt(abs(solid.I2s))*sign(solid.I2s) (Pa), 点: (4.7702, -24.541)sqrt(abs(solid.I2s))*sign(solid.I2s) (Pa), 点: (4.3412, -24.62)sqrt(abs(solid.I2s))*sign(solid.I2s) (Pa), 点: (3.9109, -24.692)sqrt(abs(solid.I2s))*sign(solid.I2s) (Pa), 点: (3.4793, -24.757)sqrt(abs(solid.I2s))*sign(solid.I2s) (Pa), 点: (3.0467, -24.814)sqrt(abs(solid.I2s))*sign(solid.I2s) (Pa), 点: (2.6132, -24.863)sqrt(abs(solid.I2s))*sign(solid.I2s) (Pa), 点: (2.1789, -24.905)sqrt(abs(solid.I2s))*sign(solid.I2s) (Pa), 点: (1.7439, -24.939)sqrt(abs(solid.I2s))*sign(solid.I2s) (Pa), 点: (1.3084, -24.966)sqrt(abs(solid.I2s))*sign(solid.I2s) (Pa), 点: (0.87249, -24.985)sqrt(abs(solid.I2s))*sign(solid.I2s) (Pa), 点: (0.43631, -24.996)sqrt(abs(solid.I2s))*sign(solid.I2s) (Pa), 点: (1.5308E-15, -25)sqrt(abs(solid.I2s))*sign(solid.I2s) (Pa), 点: (-0.43631, -24.996)sqrt(abs(solid.I2s))*sign(solid.I2s) (Pa), 点: (-0.87249, -24.985)sqrt(abs(solid.I2s))*sign(solid.I2s) (Pa), 点: (-1.3084, -24.966)sqrt(abs(solid.I2s))*sign(solid.I2s) (Pa), 点: (-1.7439, -24.939)sqrt(abs(solid.I2s))*sign(solid.I2s) (Pa), 点: (-2.1789, -24.905)sqrt(abs(solid.I2s))*sign(solid.I2s) (Pa), 点: (-2.6132, -24.863)sqrt(abs(solid.I2s))*sign(solid.I2s) (Pa), 点: (-3.0467, -24.814)sqrt(abs(solid.I2s))*sign(solid.I2s) (Pa), 点: (-3.4793, -24.757)sqrt(abs(solid.I2s))*sign(solid.I2s) (Pa), 点: (-3.9109, -24.692)sqrt(abs(solid.I2s))*sign(solid.I2s) (Pa), 点: (-4.3412, -24.62)sqrt(abs(solid.I2s))*sign(solid.I2s) (Pa), 点: (-4.7702, -24.541)sqrt(abs(solid.I2s))*sign(solid.I2s) (Pa), 点: (-5.1978, -24.454)sqrt(abs(solid.I2s))*sign(solid.I2s) (Pa), 点: (-5.6238, -24.359)sqrt(abs(solid.I2s))*sign(solid.I2s) (Pa), 点: (-6.048, -24.257)sqrt(abs(solid.I2s))*sign(solid.I2s) (Pa), 点: (-6.4705, -24.148)sqrt(abs(solid.I2s))*sign(solid.I2s) (Pa), 点: (-6.8909, -24.032)sqrt(abs(solid.I2s))*sign(solid.I2s) (Pa), 点: (-7.3093, -23.908)sqrt(abs(solid.I2s))*sign(solid.I2s) (Pa), 点: (-7.7254, -23.776)sqrt(abs(solid.I2s))*sign(solid.I2s) (Pa), 点: (-8.1392, -23.638)sqrt(abs(solid.I2s))*sign(solid.I2s) (Pa), 点: (-8.5505, -23.492)sqrt(abs(solid.I2s))*sign(solid.I2s) (Pa), 点: (-8.9592, -23.34)sqrt(abs(solid.I2s))*sign(solid.I2s) (Pa), 点: (-9.3652, -23.18)sqrt(abs(solid.I2s))*sign(solid.I2s) (Pa), 点: (-9.7683, -23.013)sqrt(abs(solid.I2s))*sign(solid.I2s) (Pa), 点: (-10.168, -22.839)sqrt(abs(solid.I2s))*sign(solid.I2s) (Pa), 点: (-10.565, -22.658)sqrt(abs(solid.I2s))*sign(solid.I2s) (Pa), 点: (-10.959, -22.47)sqrt(abs(solid.I2s))*sign(solid.I2s) (Pa), 点: (-11.35, -22.275)sqrt(abs(solid.I2s))*sign(solid.I2s) (Pa), 点: (-11.737, -22.074)sqrt(abs(solid.I2s))*sign(solid.I2s) (Pa), 点: (-12.12, -21.865)sqrt(abs(solid.I2s))*sign(solid.I2s) (Pa), 点: (-12.5, -21.651)sqrt(abs(solid.I2s))*sign(solid.I2s) (Pa), 点: (-12.876, -21.429)sqrt(abs(solid.I2s))*sign(solid.I2s) (Pa), 点: (-13.248, -21.201)sqrt(abs(solid.I2s))*sign(solid.I2s) (Pa), 点: (-13.616, -20.967)sqrt(abs(solid.I2s))*sign(solid.I2s) (Pa), 点: (-13.98, -20.726)sqrt(abs(solid.I2s))*sign(solid.I2s) (Pa), 点: (-14.339, -20.479)sqrt(abs(solid.I2s))*sign(solid.I2s) (Pa), 点: (-14.695, -20.225)sqrt(abs(solid.I2s))*sign(solid.I2s) (Pa), 点: (-15.045, -19.966)sqrt(abs(solid.I2s))*sign(solid.I2s) (Pa), 点: (-15.392, -19.7)sqrt(abs(solid.I2s))*sign(solid.I2s) (Pa), 点: (-15.733, -19.429)sqrt(abs(solid.I2s))*sign(solid.I2s) (Pa), 点: (-16.07, -19.151)sqrt(abs(solid.I2s))*sign(solid.I2s) (Pa), 点: (-16.401, -18.868)sqrt(abs(solid.I2s))*sign(solid.I2s) (Pa), 点: (-16.728, -18.579)sqrt(abs(solid.I2s))*sign(solid.I2s) (Pa), 点: (-17.05, -18.284)sqrt(abs(solid.I2s))*sign(solid.I2s) (Pa), 点: (-17.366, -17.983)sqrt(abs(solid.I2s))*sign(solid.I2s) (Pa), 点: (-17.678, -17.678)sqrt(abs(solid.I2s))*sign(solid.I2s) (Pa), 点: (-17.983, -17.366)sqrt(abs(solid.I2s))*sign(solid.I2s) (Pa), 点: (-18.284, -17.05)sqrt(abs(solid.I2s))*sign(solid.I2s) (Pa), 点: (-18.579, -16.728)sqrt(abs(solid.I2s))*sign(solid.I2s) (Pa), 点: (-18.868, -16.401)sqrt(abs(solid.I2s))*sign(solid.I2s) (Pa), 点: (-19.151, -16.07)sqrt(abs(solid.I2s))*sign(solid.I2s) (Pa), 点: (-19.429, -15.733)sqrt(abs(solid.I2s))*sign(solid.I2s) (Pa), 点: (-19.7, -15.392)sqrt(abs(solid.I2s))*sign(solid.I2s) (Pa), 点: (-19.966, -15.045)sqrt(abs(solid.I2s))*sign(solid.I2s) (Pa), 点: (-20.225, -14.695)sqrt(abs(solid.I2s))*sign(solid.I2s) (Pa), 点: (-20.479, -14.339)sqrt(abs(solid.I2s))*sign(solid.I2s) (Pa), 点: (-20.726, -13.98)sqrt(abs(solid.I2s))*sign(solid.I2s) (Pa), 点: (-20.967, -13.616)sqrt(abs(solid.I2s))*sign(solid.I2s) (Pa), 点: (-21.201, -13.248)sqrt(abs(solid.I2s))*sign(solid.I2s) (Pa), 点: (-21.429, -12.876)sqrt(abs(solid.I2s))*sign(solid.I2s) (Pa), 点: (-21.651, -12.5)sqrt(abs(solid.I2s))*sign(solid.I2s) (Pa), 点: (-21.865, -12.12)sqrt(abs(solid.I2s))*sign(solid.I2s) (Pa), 点: (-22.074, -11.737)sqrt(abs(solid.I2s))*sign(solid.I2s) (Pa), 点: (-22.275, -11.35)sqrt(abs(solid.I2s))*sign(solid.I2s) (Pa), 点: (-22.47, -10.959)sqrt(abs(solid.I2s))*sign(solid.I2s) (Pa), 点: (-22.658, -10.565)sqrt(abs(solid.I2s))*sign(solid.I2s) (Pa), 点: (-22.839, -10.168)sqrt(abs(solid.I2s))*sign(solid.I2s) (Pa), 点: (-23.013, -9.7683)sqrt(abs(solid.I2s))*sign(solid.I2s) (Pa), 点: (-23.18, -9.3652)sqrt(abs(solid.I2s))*sign(solid.I2s) (Pa), 点: (-23.34, -8.9592)sqrt(abs(solid.I2s))*sign(solid.I2s) (Pa), 点: (-23.492, -8.5505)sqrt(abs(solid.I2s))*sign(solid.I2s) (Pa), 点: (-23.638, -8.1392)sqrt(abs(solid.I2s))*sign(solid.I2s) (Pa), 点: (-23.776, -7.7254)sqrt(abs(solid.I2s))*sign(solid.I2s) (Pa), 点: (-23.908, -7.3093)sqrt(abs(solid.I2s))*sign(solid.I2s) (Pa), 点: (-24.032, -6.8909)sqrt(abs(solid.I2s))*sign(solid.I2s) (Pa), 点: (-24.148, -6.4705)sqrt(abs(solid.I2s))*sign(solid.I2s) (Pa), 点: (-24.257, -6.048)sqrt(abs(solid.I2s))*sign(solid.I2s) (Pa), 点: (-24.359, -5.6238)sqrt(abs(solid.I2s))*sign(solid.I2s) (Pa), 点: (-24.454, -5.1978)sqrt(abs(solid.I2s))*sign(solid.I2s) (Pa), 点: (-24.541, -4.7702)sqrt(abs(solid.I2s))*sign(solid.I2s) (Pa), 点: (-24.62, -4.3412)sqrt(abs(solid.I2s))*sign(solid.I2s) (Pa), 点: (-24.692, -3.9109)sqrt(abs(solid.I2s))*sign(solid.I2s) (Pa), 点: (-24.757, -3.4793)sqrt(abs(solid.I2s))*sign(solid.I2s) (Pa), 点: (-24.814, -3.0467)sqrt(abs(solid.I2s))*sign(solid.I2s) (Pa), 点: (-24.863, -2.6132)sqrt(abs(solid.I2s))*sign(solid.I2s) (Pa), 点: (-24.905, -2.1789)sqrt(abs(solid.I2s))*sign(solid.I2s) (Pa), 点: (-24.939, -1.7439)sqrt(abs(solid.I2s))*sign(solid.I2s) (Pa), 点: (-24.966, -1.3084)sqrt(abs(solid.I2s))*sign(solid.I2s) (Pa), 点: (-24.985, -0.87249)sqrt(abs(solid.I2s))*sign(solid.I2s) (Pa), 点: (-24.996, -0.43631)sqrt(abs(solid.I2s))*sign(solid.I2s) (Pa), 点: (-25, -3.0616E-15)
0                        0                        0                        0                        0                        0                        0                        0                        0                        0                        0                        0                        0                        0                        0                        0                        0                        0                        0                        0                        0                        0                        0                        0                        0                        0                        0                        0                        0                        0                        0                        0                        0                        0                        0                        0                        0                        0                        0                        0                        0                        0                        0                        0                        0                        0                        0                        0                        0                        0                        0                        0                        0                        0                        0                        0                        0                        0                        0                        0                        0                        0                        0                        0                        0                        0                        0                        0                        0                        0                        0                        0                        0                        0                        0                        0                        0                        0                        0                        0                        0                        0                        0                        0                        0                        0                        0                        0                        0                        0                        0                        0                        0                        0                        0                        0                        0                        0                        0                        0                        0                        0                        0                        0                        0                        0                        0                        0                        0                        0                        0                        0                        0                        0                        0                        0                        0                        0                        0                        0                        0                        0                        0                        0                        0                        0                        0                        0                        0                        0                        0                        0                        0                        0                        0                        0                        0                        0                        0                        0                        0                        0                        0                        0                        0                        0                        0                        0                        0                        0                        0                        0                        0                        0                        0                        0                        0                        0                        0                        0                        0                        0                        0                        0                        0                        0                        0                        0                        0                        0                        0                        0                        0                        0                        0                        0                        0                        0                        0                        0                        0
5.311536328340149E-35    1.9020449635330545E-35   -5.9238650044224E-36     8.607546231063805E-36    -2.9422818570211698E-36  2.115707180978829E-36    3.429464807591834E-36    1.0859631491956814E-36   1.3014661933703382E-35   1.3661573299121846E-35   4.5288594777650044E-36   1.057559375747614E-36    -8.790139631299456E-37   1.845723195496397E-36    -4.883830069096032E-37   8.4187094929545E-37      -5.5515154019912605E-37  1.436206650587163E-36    8.445777831266538E-37    9.23913372271639E-37     8.147566184369442E-37    1.92383293099043E-37     -1.3383720064314858E-37  -1.279543907800238E-37   2.330147571517128E-37    2.6689557433567377E-37   3.3212111837235227E-37   2.4817804328454324E-37   3.5740889354330295E-37   6.153536296668126E-37    1.666685965394375E-36    2.9355240124421477E-37   1.2553304151380634E-36   5.758746486968491E-37    7.0409508955097676E-37   3.967770113817909E-37    3.6642284097198028E-37   1.5138438241408092E-37   -5.867300436618049E-38   5.227772675841687E-37    -1.3309565844079928E-37  1.3550789569199797E-36   5.766912921665775E-37    3.813875791546905E-37    1.367114831108534E-37    -2.7360038080218935E-38  1.4061056527056827E-37   3.871249059764197E-37    5.91091213921643E-37     1.3975353308921187E-36   -1.4025983153821943E-37  5.513701753672594E-37    -6.703197934120716E-38   1.6801613346330787E-37   4.002613659733316E-37    4.4140290515636104E-37   7.930943051409668E-37    6.633410701902201E-37    1.4745745640135093E-36   3.7171205140973673E-37   3.6309012726419127E-37   9.062039590079222E-37    4.763835139941957E-37    3.0037400059376683E-37   5.175656041878447E-37    3.71059010524169E-37     4.960327634644967E-37    1.845598660013109E-37    1.4645591286400827E-36   5.76381875563129E-37     5.934686584175097E-37    4.233426296013566E-37    6.799961801586734E-38    2.176034104393735E-37    3.632138693560057E-37    1.150459184230256E-36    2.5909699419915096E-37   7.622140713012401E-37    2.0358956386382295E-36   8.634480185572164E-37    1.1444324256012692E-35   1.3438692063702634E-35   9.720727910722751E-36    6.521884112850605E-36    2.4525574093260326E-36   -7.482072753869537E-37   -7.885234064844583E-37   2.0603276744149722E-36   4.853892765821757E-36    9.019263246050595E-36    1.1786684846431852E-35   9.019263246051176E-36    4.8538927658221594E-36   2.060327674415336E-36    -7.885234064844735E-37   -7.482072753869553E-37   2.4525574093260002E-36   6.521884112850562E-36    9.72072791072275E-36     1.3438692063702838E-35   1.1444324256012964E-35   8.634480185567888E-37    2.0358956386383107E-36   7.622140713011466E-37    2.590969941990475E-37    1.150459184230244E-36    3.632138693559987E-37    2.176034104393678E-37    6.799961801585313E-38    4.233426296013259E-37    5.934686584174853E-37    5.763818755631279E-37    1.4645591286401153E-36   1.8455986600144234E-37   4.960327634644948E-37    3.710590105241657E-37    5.175656041878429E-37    3.0037400059378245E-37   4.763835139941921E-37    9.062039590079125E-37    2.0877072161439942E-36   3.7171205140961904E-37   1.4745745640134829E-36   6.6334107019023356E-37   7.930943051409566E-37    4.414029051563749E-37    4.002613659733584E-37    1.6801613346330998E-37   -6.703197934119506E-38   5.51370175367285E-37     -1.4025983153821728E-37  1.3975353308920616E-36   5.910912139216461E-37    3.8712490597645095E-37   1.4061056527056931E-37   -2.7360038080222975E-38  1.3671148311085602E-37   3.813875791546986E-37    5.766912921666198E-37    1.3550789569199755E-36   -1.3309565844079172E-37  5.227772675841726E-37    -5.867300436619705E-38   1.5138438241407695E-37   3.6642284097192164E-37   3.967770113817518E-37    7.040950895509764E-37    5.758746486969307E-37    1.2553304151380579E-36   2.9355240124424676E-37   1.6666859653943598E-36   6.1535362966682545E-37   3.5740889354329852E-37   2.4817804328453635E-37   3.3212111837234813E-37   2.668955743356668E-37    2.3301475715171417E-37   -1.2795439078002517E-37  -1.3383720064315233E-37  1.9238329309904957E-37   8.147566184369875E-37    9.239133722716247E-37    8.445777831265759E-37    1.4362066505870766E-36   -5.5515154019912855E-37  8.418709492953353E-37    -4.883830069095994E-37   1.8457231954961734E-36   -8.790139631300007E-37   1.0575593757469952E-36   4.52885947776512E-36     1.3661573299121744E-35   1.3014661933703048E-35   1.0859631491957811E-36   3.4294648075921196E-36   2.115707180978813E-36    -2.9422818570212055E-36  8.607546231063894E-36    -5.9238650044225084E-36  1.9020449635328794E-35   3.805909061601091E-35
1.2892223464107458E-34   6.221359621802516E-35    2.2101384187350057E-36   -1.0260621484404636E-35  7.852884854551253E-36    -9.163773782049657E-36   -3.843800403845967E-36   3.319364869183302E-35    4.1238316479023074E-36   2.248944244578352E-35    5.432659330271544E-35    2.504788686558175E-36    1.6205276851167264E-35   8.945534224470902E-36    -3.4393927436139374E-36  2.378131891629321E-35    -3.590962734981374E-36   4.817686223332357E-36    1.0316734149671641E-35   4.5279628510985286E-36   1.0496480547077456E-35   1.7070773237991014E-35   4.49134347210872E-35     -3.0274119204822004E-36  1.5811635384569402E-35   1.2484147995585274E-35   1.608903604681982E-35    9.934119201660805E-36    1.392451609521766E-35    2.7848947645348855E-35   5.598059612663811E-35    8.516534903057458E-36    3.549740887955625E-35    1.4147621147272671E-35   1.7445657698563148E-35   8.670692654759949E-36    7.585946858396926E-36    3.359329692762415E-36    -1.9420244307664786E-36  8.345103311904337E-36    1.732431204947297E-37    1.7496013477210258E-35   6.810021789801374E-36    4.350222692662029E-36    2.018405078019917E-36    -1.1986871340791772E-36  1.732069791243888E-36    3.95576751667604E-36     5.9231322078117786E-36   1.4840992764543667E-35   -5.312971545696675E-37   6.738187419615916E-36    -1.6687717541838533E-36  2.5443968058288627E-36   5.8677728060595896E-36   6.580731624163543E-36    1.3648194846254087E-35   1.0327179414629329E-35   2.704479075791244E-35    5.529058925381022E-36    8.179043813166213E-36    2.1506018504478722E-35   1.1197042385062066E-35   9.068721030274495E-36    1.3184157661709813E-35   1.150871137505249E-35    1.3790782143440506E-35   6.390783397266622E-36    4.165487594751378E-35    1.5440837583231847E-35   2.005701943235189E-35    9.6955924587656E-36      -8.090991652613485E-37   -9.601751692682174E-37   4.15298870210065E-36     4.2494605035849664E-36   6.509173325363332E-37    1.3866420286413322E-36   1.0031808275784213E-36   1.6123239316937756E-36   1.3593654501982797E-35   4.1259053760513334E-35   2.739241241805592E-35    1.0380997902774176E-35   5.581854397756743E-36    3.828283365085931E-36    4.4978291947489254E-36   5.424525909507747E-36    1.2665115574510928E-35   2.65255136077957E-35     4.1216205819693435E-35   2.65255136077976E-35     1.266511557451218E-35    5.424525909508662E-36    4.497829194748732E-36    3.8282833650859605E-36   5.5818543977567715E-36   1.038099790277408E-35    2.7392412418056194E-35   4.12590537605144E-35     1.359365450198324E-35    1.612323931693873E-36    1.0031808275785413E-36   1.3866420286412268E-36   6.5091733253638424E-37   4.249460503584878E-36    4.152988702100584E-36    -9.601751692680822E-37   -8.090991652619687E-37   9.695592458764755E-36    2.0057019432351192E-35   1.5440837583231772E-35   4.165487594751468E-35    6.390783397268848E-36    1.3790782143440423E-35   1.1508711375052342E-35   1.3184157661709768E-35   9.068721030274715E-36    1.1197042385061973E-35   2.1506018504478505E-35   4.2408904929452586E-35   5.5290589253787375E-36   2.7044790757912115E-35   1.032717941462953E-35    1.3648194846253916E-35   6.580731624163776E-36    5.867772806059944E-36    2.5443968058288968E-36   -1.6687717541837985E-36  6.738187419616247E-36    -5.312971545696162E-37   1.4840992764543188E-35   5.923132207811852E-36    3.9557675166763763E-36   1.732069791243966E-36    -1.1986871340791607E-36  2.0184050780199913E-36   4.350222692662077E-36    6.810021789801943E-36    1.74960134772103E-35     1.7324312049471344E-37   8.345103311904403E-36    -1.942024430766553E-36   3.3593296927623444E-36   7.585946858395893E-36    8.670692654759109E-36    1.744565769856321E-35    1.4147621147274783E-35   3.549740887955612E-35    8.516534903058666E-36    5.598059612663764E-35    2.784894764534905E-35    1.3924516095217542E-35   9.934119201660486E-36    1.6089036046819711E-35   1.2484147995585124E-35   1.5811635384569405E-35   -3.0274119204794006E-36  4.491343472108922E-35    1.70707732379914E-35     1.0496480547077731E-35   4.527962851098427E-36    1.0316734149671644E-35   4.817686223331754E-36    -3.5909627349810324E-36  2.3781318916292383E-35   -3.439392743614013E-36   8.945534224469798E-36    1.6205276851167427E-35   2.5047886865586884E-36   5.432659330271613E-35    2.2489442445783027E-35   4.123831647902217E-36    3.319364869183398E-35    -3.843800403845842E-36   -9.163773782049692E-36   7.852884854550956E-36    -1.0260621484404683E-35  2.2101384187284778E-36   6.221359621801911E-35    6.370166149294759E-35
1.8117549678294017E-33   7.999822051036198E-34    -2.9587506919302724E-34  2.0253780124159016E-34   1.1442892168414788E-34   1.7412752645715205E-34   1.4806798763994074E-34   1.1601848070439622E-34   -6.172917719645038E-35   2.6917897843656727E-34   -4.936282514216619E-35   1.3611822454023153E-34   4.851400980803579E-35    2.4284794488152945E-35   -2.200131977428074E-35   8.210660695993577E-35    5.285740043229748E-35    -1.290123062158563E-35   -3.953562085519406E-35   2.7708944496178833E-34   4.800588545044652E-34    3.4939060727209675E-34   9.057636308444629E-34    1.8919172610308174E-34   2.438324473019912E-34    1.8733434234374847E-34   1.9659455519204375E-34   1.1607274347830777E-34   1.2780710033700077E-34   2.8922568131857608E-34   3.601997348617395E-34    5.47913797885414E-36     1.101205686680188E-34    -1.7898926505752234E-35  -4.0105075037002863E-35  -6.306142068655945E-36   1.9333233428938152E-35   -2.4461747270935536E-35  1.231373737947616E-35    8.47300361951307E-35     -7.159950223656536E-35   2.97409210448682E-34     1.37326106083983E-34     9.203205228087875E-35    -2.1925609389854495E-35  -3.322731847530646E-35   -1.9316250990117926E-35  9.444570000265839E-35    1.4455779634996465E-34   3.1867827130744542E-34   -7.180752314150993E-35   1.0059251719946565E-34   1.1769794658247119E-35   -1.8464618270540522E-35  4.306411727819533E-35    4.121347238241508E-35    -1.8327982001502075E-35  4.802894232977917E-35    -4.969151065278759E-35   2.0912597509657277E-35   -4.130516250874149E-35   1.2826841379251264E-34   5.674033256072606E-35    5.593295016178307E-35    1.0628461200022983E-34   1.127582662679657E-34    1.4120438788232398E-34   9.182593189023367E-35    4.882999083437501E-34    1.602809878891281E-34    2.4664875309472546E-34   1.2329699289280627E-34   -1.5495914192665789E-35  -6.757919726669123E-36   2.6767457008541387E-35   2.7263370952380604E-35   1.6507549036837035E-35   2.1111683322403047E-35   -1.4270179080035765E-35  2.3584588338830317E-35   1.6800417109541368E-34   2.2615824103104033E-34   2.7259804732160735E-35   8.325051887849709E-35    6.860699353315826E-35    7.438254575606069E-35    1.3281372780345942E-34   1.265205061341093E-34    7.140533704976601E-35    1.052239586741527E-34    2.6862140350603433E-34   1.0522395867415935E-34   7.140533704976639E-35    1.2652050613411845E-34   1.3281372780345806E-34   7.438254575606062E-35    6.860699353315804E-35    8.325051887850116E-35    2.7259804732176916E-35   2.2615824103104743E-34   1.6800417109541854E-34   2.3584588338828208E-35   -1.4270179080038238E-35  2.111168332240181E-35    1.650754903683657E-35    2.7263370952380524E-35   2.6767457008541007E-35   -6.75791972666885E-36    -1.5495914192668338E-35  1.2329699289279543E-34   2.4664875309471627E-34   1.6028098788912757E-34   4.8829990834376E-34      9.182593189024508E-35    1.4120438788232285E-34   1.1275826626796527E-34   1.0628461200022934E-34   5.59329501617843E-35     5.674033256072551E-35    1.2826841379251202E-34   1.063682714499122E-34    2.091259750965703E-35    -4.96915106527881E-35    4.802894232977984E-35    -1.832798200150205E-35   4.1213472382416073E-35   4.3064117278199846E-35   -1.846461827054002E-35   1.1769794658248839E-35   1.0059251719946974E-34   -7.180752314150936E-35   3.1867827130742956E-34   1.4455779634996418E-34   9.444570000266555E-35    -1.9316250990121123E-35  -3.3227318475307993E-35  -2.1925609389853447E-35  9.203205228088167E-35    1.3732610608399154E-34   2.9740921044867853E-34   -7.159950223656212E-35   8.473003619513085E-35    1.2313737379474026E-35   -2.446174727093615E-35   1.9333233428924628E-35   -6.306142068659725E-36   -4.0105075037002655E-35  -1.7898926505754412E-35  1.1012056866802014E-34   5.479137978885703E-36    3.6019973486174064E-34   2.8922568131857565E-34   1.2780710033700112E-34   1.1607274347830422E-34   1.965945551920437E-34    1.8733434234374735E-34   2.4383244730199005E-34   1.8919172610309316E-34   9.057636308445065E-34    3.493906072721073E-34    4.80058854504487E-34     2.7708944496178093E-34   -3.9535620855190475E-35  -1.2901230621578486E-35  5.285740043229619E-35    8.210660695994E-35       -2.200131977428162E-35   2.428479448815229E-35    4.85140098080358E-35     1.3611822454023275E-34   -4.936282514216207E-35   2.6917897843655688E-34   -6.172917719644818E-35   1.1601848070439466E-34   1.4806798763994544E-34   1.7412752645714897E-34   1.1442892168414916E-34   2.0253780124158888E-34   -2.9587506919299944E-34  7.999822051035418E-34    4.6687082000866215E-34