% Model:              circ_pt.mph
% Version:            COMSOL 6.0.0.318
% Date:               Sep 23 2022, 11:45
% Table:              垂直振动 - 点计算 2
% sqrt(abs(solid.I2s))*sign(solid.I2s) (Pa), 点: (25, 0)sqrt(abs(solid.I2s))*sign(solid.I2s) (Pa), 点: (24.996, -0.43631)sqrt(abs(solid.I2s))*sign(solid.I2s) (Pa), 点: (24.985, -0.87249)sqrt(abs(solid.I2s))*sign(solid.I2s) (Pa), 点: (24.966, -1.3084)sqrt(abs(solid.I2s))*sign(solid.I2s) (Pa), 点: (24.939, -1.7439)sqrt(abs(solid.I2s))*sign(solid.I2s) (Pa), 点: (24.905, -2.1789)sqrt(abs(solid.I2s))*sign(solid.I2s) (Pa), 点: (24.863, -2.6132)sqrt(abs(solid.I2s))*sign(solid.I2s) (Pa), 点: (24.814, -3.0467)sqrt(abs(solid.I2s))*sign(solid.I2s) (Pa), 点: (24.757, -3.4793)sqrt(abs(solid.I2s))*sign(solid.I2s) (Pa), 点: (24.692, -3.9109)sqrt(abs(solid.I2s))*sign(solid.I2s) (Pa), 点: (24.62, -4.3412)sqrt(abs(solid.I2s))*sign(solid.I2s) (Pa), 点: (24.541, -4.7702)sqrt(abs(solid.I2s))*sign(solid.I2s) (Pa), 点: (24.454, -5.1978)sqrt(abs(solid.I2s))*sign(solid.I2s) (Pa), 点: (24.359, -5.6238)sqrt(abs(solid.I2s))*sign(solid.I2s) (Pa), 点: (24.257, -6.048)sqrt(abs(solid.I2s))*sign(solid.I2s) (Pa), 点: (24.148, -6.4705)sqrt(abs(solid.I2s))*sign(solid.I2s) (Pa), 点: (24.032, -6.8909)sqrt(abs(solid.I2s))*sign(solid.I2s) (Pa), 点: (23.908, -7.3093)sqrt(abs(solid.I2s))*sign(solid.I2s) (Pa), 点: (23.776, -7.7254)sqrt(abs(solid.I2s))*sign(solid.I2s) (Pa), 点: (23.638, -8.1392)sqrt(abs(solid.I2s))*sign(solid.I2s) (Pa), 点: (23.492, -8.5505)sqrt(abs(solid.I2s))*sign(solid.I2s) (Pa), 点: (23.34, -8.9592)sqrt(abs(solid.I2s))*sign(solid.I2s) (Pa), 点: (23.18, -9.3652)sqrt(abs(solid.I2s))*sign(solid.I2s) (Pa), 点: (23.013, -9.7683)sqrt(abs(solid.I2s))*sign(solid.I2s) (Pa), 点: (22.839, -10.168)sqrt(abs(solid.I2s))*sign(solid.I2s) (Pa), 点: (22.658, -10.565)sqrt(abs(solid.I2s))*sign(solid.I2s) (Pa), 点: (22.47, -10.959)sqrt(abs(solid.I2s))*sign(solid.I2s) (Pa), 点: (22.275, -11.35)sqrt(abs(solid.I2s))*sign(solid.I2s) (Pa), 点: (22.074, -11.737)sqrt(abs(solid.I2s))*sign(solid.I2s) (Pa), 点: (21.865, -12.12)sqrt(abs(solid.I2s))*sign(solid.I2s) (Pa), 点: (21.651, -12.5)sqrt(abs(solid.I2s))*sign(solid.I2s) (Pa), 点: (21.429, -12.876)sqrt(abs(solid.I2s))*sign(solid.I2s) (Pa), 点: (21.201, -13.248)sqrt(abs(solid.I2s))*sign(solid.I2s) (Pa), 点: (20.967, -13.616)sqrt(abs(solid.I2s))*sign(solid.I2s) (Pa), 点: (20.726, -13.98)sqrt(abs(solid.I2s))*sign(solid.I2s) (Pa), 点: (20.479, -14.339)sqrt(abs(solid.I2s))*sign(solid.I2s) (Pa), 点: (20.225, -14.695)sqrt(abs(solid.I2s))*sign(solid.I2s) (Pa), 点: (19.966, -15.045)sqrt(abs(solid.I2s))*sign(solid.I2s) (Pa), 点: (19.7, -15.392)sqrt(abs(solid.I2s))*sign(solid.I2s) (Pa), 点: (19.429, -15.733)sqrt(abs(solid.I2s))*sign(solid.I2s) (Pa), 点: (19.151, -16.07)sqrt(abs(solid.I2s))*sign(solid.I2s) (Pa), 点: (18.868, -16.401)sqrt(abs(solid.I2s))*sign(solid.I2s) (Pa), 点: (18.579, -16.728)sqrt(abs(solid.I2s))*sign(solid.I2s) (Pa), 点: (18.284, -17.05)sqrt(abs(solid.I2s))*sign(solid.I2s) (Pa), 点: (17.983, -17.366)sqrt(abs(solid.I2s))*sign(solid.I2s) (Pa), 点: (17.678, -17.678)sqrt(abs(solid.I2s))*sign(solid.I2s) (Pa), 点: (17.366, -17.983)sqrt(abs(solid.I2s))*sign(solid.I2s) (Pa), 点: (17.05, -18.284)sqrt(abs(solid.I2s))*sign(solid.I2s) (Pa), 点: (16.728, -18.579)sqrt(abs(solid.I2s))*sign(solid.I2s) (Pa), 点: (16.401, -18.868)sqrt(abs(solid.I2s))*sign(solid.I2s) (Pa), 点: (16.07, -19.151)sqrt(abs(solid.I2s))*sign(solid.I2s) (Pa), 点: (15.733, -19.429)sqrt(abs(solid.I2s))*sign(solid.I2s) (Pa), 点: (15.392, -19.7)sqrt(abs(solid.I2s))*sign(solid.I2s) (Pa), 点: (15.045, -19.966)sqrt(abs(solid.I2s))*sign(solid.I2s) (Pa), 点: (14.695, -20.225)sqrt(abs(solid.I2s))*sign(solid.I2s) (Pa), 点: (14.339, -20.479)sqrt(abs(solid.I2s))*sign(solid.I2s) (Pa), 点: (13.98, -20.726)sqrt(abs(solid.I2s))*sign(solid.I2s) (Pa), 点: (13.616, -20.967)sqrt(abs(solid.I2s))*sign(solid.I2s) (Pa), 点: (13.248, -21.201)sqrt(abs(solid.I2s))*sign(solid.I2s) (Pa), 点: (12.876, -21.429)sqrt(abs(solid.I2s))*sign(solid.I2s) (Pa), 点: (12.5, -21.651)sqrt(abs(solid.I2s))*sign(solid.I2s) (Pa), 点: (12.12, -21.865)sqrt(abs(solid.I2s))*sign(solid.I2s) (Pa), 点: (11.737, -22.074)sqrt(abs(solid.I2s))*sign(solid.I2s) (Pa), 点: (11.35, -22.275)sqrt(abs(solid.I2s))*sign(solid.I2s) (Pa), 点: (10.959, -22.47)sqrt(abs(solid.I2s))*sign(solid.I2s) (Pa), 点: (10.565, -22.658)sqrt(abs(solid.I2s))*sign(solid.I2s) (Pa), 点: (10.168, -22.839)sqrt(abs(solid.I2s))*sign(solid.I2s) (Pa), 点: (9.7683, -23.013)sqrt(abs(solid.I2s))*sign(solid.I2s) (Pa), 点: (9.3652, -23.18)sqrt(abs(solid.I2s))*sign(solid.I2s) (Pa), 点: (8.9592, -23.34)sqrt(abs(solid.I2s))*sign(solid.I2s) (Pa), 点: (8.5505, -23.492)sqrt(abs(solid.I2s))*sign(solid.I2s) (Pa), 点: (8.1392, -23.638)sqrt(abs(solid.I2s))*sign(solid.I2s) (Pa), 点: (7.7254, -23.776)sqrt(abs(solid.I2s))*sign(solid.I2s) (Pa), 点: (7.3093, -23.908)sqrt(abs(solid.I2s))*sign(solid.I2s) (Pa), 点: (6.8909, -24.032)sqrt(abs(solid.I2s))*sign(solid.I2s) (Pa), 点: (6.4705, -24.148)sqrt(abs(solid.I2s))*sign(solid.I2s) (Pa), 点: (6.048, -24.257)sqrt(abs(solid.I2s))*sign(solid.I2s) (Pa), 点: (5.6238, -24.359)sqrt(abs(solid.I2s))*sign(solid.I2s) (Pa), 点: (5.1978, -24.454)sqrt(abs(solid.I2s))*sign(solid.I2s) (Pa), 点: (4.7702, -24.541)sqrt(abs(solid.I2s))*sign(solid.I2s) (Pa), 点: (4.3412, -24.62)sqrt(abs(solid.I2s))*sign(solid.I2s) (Pa), 点: (3.9109, -24.692)sqrt(abs(solid.I2s))*sign(solid.I2s) (Pa), 点: (3.4793, -24.757)sqrt(abs(solid.I2s))*sign(solid.I2s) (Pa), 点: (3.0467, -24.814)sqrt(abs(solid.I2s))*sign(solid.I2s) (Pa), 点: (2.6132, -24.863)sqrt(abs(solid.I2s))*sign(solid.I2s) (Pa), 点: (2.1789, -24.905)sqrt(abs(solid.I2s))*sign(solid.I2s) (Pa), 点: (1.7439, -24.939)sqrt(abs(solid.I2s))*sign(solid.I2s) (Pa), 点: (1.3084, -24.966)sqrt(abs(solid.I2s))*sign(solid.I2s) (Pa), 点: (0.87249, -24.985)sqrt(abs(solid.I2s))*sign(solid.I2s) (Pa), 点: (0.43631, -24.996)sqrt(abs(solid.I2s))*sign(solid.I2s) (Pa), 点: (1.5308E-15, -25)sqrt(abs(solid.I2s))*sign(solid.I2s) (Pa), 点: (-0.43631, -24.996)sqrt(abs(solid.I2s))*sign(solid.I2s) (Pa), 点: (-0.87249, -24.985)sqrt(abs(solid.I2s))*sign(solid.I2s) (Pa), 点: (-1.3084, -24.966)sqrt(abs(solid.I2s))*sign(solid.I2s) (Pa), 点: (-1.7439, -24.939)sqrt(abs(solid.I2s))*sign(solid.I2s) (Pa), 点: (-2.1789, -24.905)sqrt(abs(solid.I2s))*sign(solid.I2s) (Pa), 点: (-2.6132, -24.863)sqrt(abs(solid.I2s))*sign(solid.I2s) (Pa), 点: (-3.0467, -24.814)sqrt(abs(solid.I2s))*sign(solid.I2s) (Pa), 点: (-3.4793, -24.757)sqrt(abs(solid.I2s))*sign(solid.I2s) (Pa), 点: (-3.9109, -24.692)sqrt(abs(solid.I2s))*sign(solid.I2s) (Pa), 点: (-4.3412, -24.62)sqrt(abs(solid.I2s))*sign(solid.I2s) (Pa), 点: (-4.7702, -24.541)sqrt(abs(solid.I2s))*sign(solid.I2s) (Pa), 点: (-5.1978, -24.454)sqrt(abs(solid.I2s))*sign(solid.I2s) (Pa), 点: (-5.6238, -24.359)sqrt(abs(solid.I2s))*sign(solid.I2s) (Pa), 点: (-6.048, -24.257)sqrt(abs(solid.I2s))*sign(solid.I2s) (Pa), 点: (-6.4705, -24.148)sqrt(abs(solid.I2s))*sign(solid.I2s) (Pa), 点: (-6.8909, -24.032)sqrt(abs(solid.I2s))*sign(solid.I2s) (Pa), 点: (-7.3093, -23.908)sqrt(abs(solid.I2s))*sign(solid.I2s) (Pa), 点: (-7.7254, -23.776)sqrt(abs(solid.I2s))*sign(solid.I2s) (Pa), 点: (-8.1392, -23.638)sqrt(abs(solid.I2s))*sign(solid.I2s) (Pa), 点: (-8.5505, -23.492)sqrt(abs(solid.I2s))*sign(solid.I2s) (Pa), 点: (-8.9592, -23.34)sqrt(abs(solid.I2s))*sign(solid.I2s) (Pa), 点: (-9.3652, -23.18)sqrt(abs(solid.I2s))*sign(solid.I2s) (Pa), 点: (-9.7683, -23.013)sqrt(abs(solid.I2s))*sign(solid.I2s) (Pa), 点: (-10.168, -22.839)sqrt(abs(solid.I2s))*sign(solid.I2s) (Pa), 点: (-10.565, -22.658)sqrt(abs(solid.I2s))*sign(solid.I2s) (Pa), 点: (-10.959, -22.47)sqrt(abs(solid.I2s))*sign(solid.I2s) (Pa), 点: (-11.35, -22.275)sqrt(abs(solid.I2s))*sign(solid.I2s) (Pa), 点: (-11.737, -22.074)sqrt(abs(solid.I2s))*sign(solid.I2s) (Pa), 点: (-12.12, -21.865)sqrt(abs(solid.I2s))*sign(solid.I2s) (Pa), 点: (-12.5, -21.651)sqrt(abs(solid.I2s))*sign(solid.I2s) (Pa), 点: (-12.876, -21.429)sqrt(abs(solid.I2s))*sign(solid.I2s) (Pa), 点: (-13.248, -21.201)sqrt(abs(solid.I2s))*sign(solid.I2s) (Pa), 点: (-13.616, -20.967)sqrt(abs(solid.I2s))*sign(solid.I2s) (Pa), 点: (-13.98, -20.726)sqrt(abs(solid.I2s))*sign(solid.I2s) (Pa), 点: (-14.339, -20.479)sqrt(abs(solid.I2s))*sign(solid.I2s) (Pa), 点: (-14.695, -20.225)sqrt(abs(solid.I2s))*sign(solid.I2s) (Pa), 点: (-15.045, -19.966)sqrt(abs(solid.I2s))*sign(solid.I2s) (Pa), 点: (-15.392, -19.7)sqrt(abs(solid.I2s))*sign(solid.I2s) (Pa), 点: (-15.733, -19.429)sqrt(abs(solid.I2s))*sign(solid.I2s) (Pa), 点: (-16.07, -19.151)sqrt(abs(solid.I2s))*sign(solid.I2s) (Pa), 点: (-16.401, -18.868)sqrt(abs(solid.I2s))*sign(solid.I2s) (Pa), 点: (-16.728, -18.579)sqrt(abs(solid.I2s))*sign(solid.I2s) (Pa), 点: (-17.05, -18.284)sqrt(abs(solid.I2s))*sign(solid.I2s) (Pa), 点: (-17.366, -17.983)sqrt(abs(solid.I2s))*sign(solid.I2s) (Pa), 点: (-17.678, -17.678)sqrt(abs(solid.I2s))*sign(solid.I2s) (Pa), 点: (-17.983, -17.366)sqrt(abs(solid.I2s))*sign(solid.I2s) (Pa), 点: (-18.284, -17.05)sqrt(abs(solid.I2s))*sign(solid.I2s) (Pa), 点: (-18.579, -16.728)sqrt(abs(solid.I2s))*sign(solid.I2s) (Pa), 点: (-18.868, -16.401)sqrt(abs(solid.I2s))*sign(solid.I2s) (Pa), 点: (-19.151, -16.07)sqrt(abs(solid.I2s))*sign(solid.I2s) (Pa), 点: (-19.429, -15.733)sqrt(abs(solid.I2s))*sign(solid.I2s) (Pa), 点: (-19.7, -15.392)sqrt(abs(solid.I2s))*sign(solid.I2s) (Pa), 点: (-19.966, -15.045)sqrt(abs(solid.I2s))*sign(solid.I2s) (Pa), 点: (-20.225, -14.695)sqrt(abs(solid.I2s))*sign(solid.I2s) (Pa), 点: (-20.479, -14.339)sqrt(abs(solid.I2s))*sign(solid.I2s) (Pa), 点: (-20.726, -13.98)sqrt(abs(solid.I2s))*sign(solid.I2s) (Pa), 点: (-20.967, -13.616)sqrt(abs(solid.I2s))*sign(solid.I2s) (Pa), 点: (-21.201, -13.248)sqrt(abs(solid.I2s))*sign(solid.I2s) (Pa), 点: (-21.429, -12.876)sqrt(abs(solid.I2s))*sign(solid.I2s) (Pa), 点: (-21.651, -12.5)sqrt(abs(solid.I2s))*sign(solid.I2s) (Pa), 点: (-21.865, -12.12)sqrt(abs(solid.I2s))*sign(solid.I2s) (Pa), 点: (-22.074, -11.737)sqrt(abs(solid.I2s))*sign(solid.I2s) (Pa), 点: (-22.275, -11.35)sqrt(abs(solid.I2s))*sign(solid.I2s) (Pa), 点: (-22.47, -10.959)sqrt(abs(solid.I2s))*sign(solid.I2s) (Pa), 点: (-22.658, -10.565)sqrt(abs(solid.I2s))*sign(solid.I2s) (Pa), 点: (-22.839, -10.168)sqrt(abs(solid.I2s))*sign(solid.I2s) (Pa), 点: (-23.013, -9.7683)sqrt(abs(solid.I2s))*sign(solid.I2s) (Pa), 点: (-23.18, -9.3652)sqrt(abs(solid.I2s))*sign(solid.I2s) (Pa), 点: (-23.34, -8.9592)sqrt(abs(solid.I2s))*sign(solid.I2s) (Pa), 点: (-23.492, -8.5505)sqrt(abs(solid.I2s))*sign(solid.I2s) (Pa), 点: (-23.638, -8.1392)sqrt(abs(solid.I2s))*sign(solid.I2s) (Pa), 点: (-23.776, -7.7254)sqrt(abs(solid.I2s))*sign(solid.I2s) (Pa), 点: (-23.908, -7.3093)sqrt(abs(solid.I2s))*sign(solid.I2s) (Pa), 点: (-24.032, -6.8909)sqrt(abs(solid.I2s))*sign(solid.I2s) (Pa), 点: (-24.148, -6.4705)sqrt(abs(solid.I2s))*sign(solid.I2s) (Pa), 点: (-24.257, -6.048)sqrt(abs(solid.I2s))*sign(solid.I2s) (Pa), 点: (-24.359, -5.6238)sqrt(abs(solid.I2s))*sign(solid.I2s) (Pa), 点: (-24.454, -5.1978)sqrt(abs(solid.I2s))*sign(solid.I2s) (Pa), 点: (-24.541, -4.7702)sqrt(abs(solid.I2s))*sign(solid.I2s) (Pa), 点: (-24.62, -4.3412)sqrt(abs(solid.I2s))*sign(solid.I2s) (Pa), 点: (-24.692, -3.9109)sqrt(abs(solid.I2s))*sign(solid.I2s) (Pa), 点: (-24.757, -3.4793)sqrt(abs(solid.I2s))*sign(solid.I2s) (Pa), 点: (-24.814, -3.0467)sqrt(abs(solid.I2s))*sign(solid.I2s) (Pa), 点: (-24.863, -2.6132)sqrt(abs(solid.I2s))*sign(solid.I2s) (Pa), 点: (-24.905, -2.1789)sqrt(abs(solid.I2s))*sign(solid.I2s) (Pa), 点: (-24.939, -1.7439)sqrt(abs(solid.I2s))*sign(solid.I2s) (Pa), 点: (-24.966, -1.3084)sqrt(abs(solid.I2s))*sign(solid.I2s) (Pa), 点: (-24.985, -0.87249)sqrt(abs(solid.I2s))*sign(solid.I2s) (Pa), 点: (-24.996, -0.43631)sqrt(abs(solid.I2s))*sign(solid.I2s) (Pa), 点: (-25, -3.0616E-15)
0                        0                        0                        0                        0                        0                        0                        0                        0                        0                        0                        0                        0                        0                        0                        0                        0                        0                        0                        0                        0                        0                        0                        0                        0                        0                        0                        0                        0                        0                        0                        0                        0                        0                        0                        0                        0                        0                        0                        0                        0                        0                        0                        0                        0                        0                        0                        0                        0                        0                        0                        0                        0                        0                        0                        0                        0                        0                        0                        0                        0                        0                        0                        0                        0                        0                        0                        0                        0                        0                        0                        0                        0                        0                        0                        0                        0                        0                        0                        0                        0                        0                        0                        0                        0                        0                        0                        0                        0                        0                        0                        0                        0                        0                        0                        0                        0                        0                        0                        0                        0                        0                        0                        0                        0                        0                        0                        0                        0                        0                        0                        0                        0                        0                        0                        0                        0                        0                        0                        0                        0                        0                        0                        0                        0                        0                        0                        0                        0                        0                        0                        0                        0                        0                        0                        0                        0                        0                        0                        0                        0                        0                        0                        0                        0                        0                        0                        0                        0                        0                        0                        0                        0                        0                        0                        0                        0                        0                        0                        0                        0                        0                        0                        0                        0                        0                        0                        0                        0                        0                        0                        0                        0                        0                        0                        0                        0                        0                        0                        0                        0
6.354126697715212E-35    3.994676500840154E-35    -1.1781098337287472E-35  1.491482152211444E-35    -3.560343413012185E-36   2.2481425763346436E-36   5.701852579143744E-36    4.7857309612535256E-36   1.4652661074684732E-35   1.5875221961034727E-35   7.92788761316849E-36     6.219566856913715E-37    -7.94488284929595E-37    1.504903748741485E-36    -1.1026670279275936E-36  -2.5620855580009366E-37  -9.53716484167209E-37    3.319305804017512E-36    2.0627506563331674E-36   5.224662151101258E-36    7.287073661996295E-36    4.449402744879875E-36    9.680938912057591E-36    2.570497525760654E-36    2.184042834549084E-36    1.270498321635367E-36    1.939397534649263E-36    8.583623228420248E-37    1.5493209709575145E-36   3.273693257380413E-36    6.335915561423684E-36    1.1445065361080966E-36   4.050479711321237E-36    1.758528127392701E-36    2.012083540175076E-36    1.0905957872565575E-36   9.507913628272343E-37    4.126870566527252E-37    -1.717493054005524E-37   1.2000348534949747E-36   -2.9840221185299147E-37  2.8645448976059603E-36   1.1905473366019911E-36   7.606350538166033E-37    2.8753160803760003E-37   -4.3812452906498824E-38  2.450058083144457E-37    6.957796863632883E-37    1.0312877263810855E-36   2.3949311787578464E-36   -2.17156732494341E-37    8.942060111869957E-37    -9.258072253578399E-38   2.4795968301731437E-37   6.0434971476417316E-37   6.4764394060145255E-37   1.1483287994160494E-36   9.23909063770642E-37     2.0211310441562232E-36   4.637869716533139E-37    4.956656197135152E-37    1.0556166752956884E-36   6.014029095872619E-37    4.107491705949556E-37    6.0809280902412374E-37   4.640746290646418E-37    5.397021358633516E-37    -2.101254702469619E-37   1.2687001974945705E-36   4.512166695458625E-37    3.7438437928277456E-37   -6.755928215134761E-38   2.4876049253239514E-37   5.136151092464365E-37    2.9893924102713517E-37   -2.778565983686508E-37   -1.793274258379973E-37   1.0402881877142413E-36   2.571905649139261E-37    -1.752038316427754E-37   3.487947493700222E-36    4.918136225785517E-36    3.2075953654442826E-36   3.991088490564861E-37    2.7385770335127098E-37   5.325852408880452E-38    1.6568880718331503E-37   -1.8714335204898031E-37  -2.3888614250090523E-37  5.182330438953073E-37    -3.714677920363126E-37   5.182330438953568E-37    -2.388861425009107E-37   -1.8714335204897891E-37  1.6568880718331219E-37   5.325852408880671E-38    2.7385770335127795E-37   3.99108849056473E-37     3.207595365444255E-36    4.918136225785566E-36    3.4879474937003016E-36   -1.752038316428923E-37   2.5719056491400307E-37   1.0402881877141675E-36   -1.7932742583803432E-37  -2.778565983686486E-37   2.989392410271331E-37    5.136151092464153E-37    2.4876049253240854E-37   -6.755928215134625E-38   3.7438437928276245E-37   4.512166695458597E-37    1.2687001974945996E-36   -2.101254702468285E-37   5.397021358633482E-37    4.640746290646355E-37    6.08092809024124E-37     4.10749170594973E-37     6.014029095872576E-37    1.0556166752956762E-36   2.6964670717180578E-36   4.637869716531541E-37    2.0211310441561908E-36   9.239090637706606E-37    1.1483287994160335E-36   6.47643940601474E-37     6.043497147642144E-37    2.4795968301731817E-37   -9.258072253576022E-38   8.942060111870373E-37    -2.17156732494337E-37    2.394931178757749E-36    1.0312877263810912E-36   6.957796863633446E-37    2.4500580831444708E-37   -4.3812452906505005E-38  2.875316080376036E-37    7.606350538166215E-37    1.1905473366020781E-36   2.8645448976059546E-36   -2.9840221185297385E-37  1.200034853494985E-36    -1.717493054005809E-37   4.126870566527182E-37    9.507913628270844E-37    1.0905957872564554E-36   2.0120835401750776E-36   1.758528127392949E-36    4.050479711321227E-36    1.1445065361082222E-36   6.335915561423637E-36    3.2736932573804416E-36   1.549320970957508E-36    8.583623228419877E-37    1.9393975346492537E-36   1.2704983216353636E-36   2.1840428345490736E-36   2.5704975257607902E-36   9.68093891205808E-36     4.4494027448800025E-36   7.287073661996652E-36    5.224662151101134E-36    2.062750656332841E-36    3.319305804017283E-36    -9.53716484167163E-37    -2.562085558012095E-37   -1.1026670279276088E-36  1.5049037487411988E-36   -7.944882849295863E-37   6.219566856901777E-37    7.927887613168682E-36    1.5875221961034524E-35   1.4652661074684403E-35   4.785730961253711E-36    5.7018525791440294E-36   2.2481425763345708E-36   -3.560343413012258E-36   1.4914821522114556E-35   -1.1781098337286551E-35  3.9946765008397836E-35   3.310427650594088E-35
7.477401924000366E-34    1.0422699881626927E-34   -8.026962737874081E-35   8.951956824685923E-35    -1.4641715611362878E-35  1.1744920600147977E-35   2.0370086476189926E-35   5.356423092325276E-35    8.285869408483859E-35    2.6340075806822137E-35   4.438996183357581E-35    2.9444990829296555E-35   2.5246690749991874E-35   9.052931837572274E-36    -1.3732834422104246E-35  2.6338866484394503E-35   1.0187426936462674E-35   5.35434574525494E-35     4.20483797676076E-35     9.116199919193523E-35    1.388215445152934E-34    7.15030799471963E-35     1.7254939228496272E-34   4.688022688910019E-35    3.779808496357635E-35    2.657569373937328E-35    2.886435663635833E-35    1.6946361295279092E-35   1.9737683955573772E-35   4.09048801250681E-35     6.033434285807665E-35    4.70721575479897E-36     3.096338547899372E-35    8.573339074705759E-36    1.3297253381004962E-35   4.691383429229625E-36    3.671822070011737E-36    -9.399490929933212E-37   -2.1116403089869935E-36  2.18128039007451E-36     -4.965305919250557E-36   -4.2091442352897276E-36  -1.5499331473303206E-36  -1.2315841083722604E-36  -2.4108272028313548E-36  -2.9825966436318144E-36  -1.828960569945373E-36   4.973219578514065E-37    1.4926949204721835E-36   6.62564604838737E-36     -2.9880980501552576E-36  5.3376427945217796E-36   -2.11712008679543E-36    2.5611281364967298E-36   6.215092911429091E-36    7.101161776545373E-36    1.581762245437532E-35    1.1822651251398766E-35   3.2723437488038844E-35   6.388803833221976E-36    1.0096967755047343E-35   2.664691697443309E-35    1.39216231139661E-35     1.143061615204707E-35    1.6204382255892968E-35   1.4222325472129087E-35   1.6521363007913196E-35   4.31481106119742E-36     4.600343073529567E-35    1.6463495897827405E-35   1.8273935379067877E-35   1.025805871328068E-35    3.1972308203968366E-36   -2.295843410054728E-36   -9.6457250608527E-37     7.38838032715723E-36     -1.2065832264004088E-36  3.2631382618419175E-36   1.4735320557049786E-37   3.621864390171231E-36    2.2464947803142006E-35   3.1787416895251364E-35   1.198101704528769E-36    -2.0113329823252995E-36  -1.3325659259513477E-36  5.746860228701215E-36    1.0286574186377438E-36   8.507403023705107E-36    5.011022515489063E-36    1.0615880260682098E-35   6.278063201406277E-36    1.0615880260682374E-35   5.0110225154896836E-36   8.507403023705049E-36    1.0286574186377384E-36   5.7468602287011956E-36   -1.3325659259513266E-36  -2.0113329823254876E-36  1.1981017045285979E-36   3.178741689525224E-35    2.2464947803142722E-35   3.621864390171333E-36    1.4735320556957388E-37   3.263138261841704E-36    -1.2065832264004326E-36  7.388380327157101E-36    -9.645725060853087E-37   -2.295843410054567E-36   3.197230820396609E-36    1.0258058713279922E-35   1.827393537906723E-35    1.6463495897827362E-35   4.600343073529669E-35    4.314811061202463E-36    1.6521363007913108E-35   1.4222325472128927E-35   1.6204382255892925E-35   1.143061615204737E-35    1.3921623113965978E-35   2.664691697443293E-35    5.263536104418344E-35    6.388803833219096E-36    3.2723437488038475E-35   1.1822651251398997E-35   1.5817622454375147E-35   7.101161776545639E-36    6.215092911429468E-36    2.5611281364967676E-36   -2.117120086795436E-36   5.3376427945220716E-36   -2.9880980501552463E-36  6.625646048387359E-36    1.492694920472312E-36    4.973219578516343E-37    -1.8289605699453534E-36  -2.9825966436318658E-36  -2.410827202831273E-36   -1.2315841083722147E-36  -1.5499331473304075E-36  -4.209144235289626E-36   -4.965305919250335E-36   2.181280390074563E-36    -2.111640308986888E-36   -9.399490929935295E-37   3.671822070011525E-36    4.691383429229195E-36    1.3297253381005363E-35   8.573339074707374E-36    3.0963385478993854E-35   4.707215754800557E-36    6.033434285807662E-35    4.0904880125068244E-35   1.973768395557376E-35    1.6946361295278512E-35   2.8864356636358463E-35   2.6575693739373353E-35   3.7798084963576134E-35   4.688022688910185E-35    1.725493922849719E-34    7.150307994719889E-35    1.3882154451530043E-34   9.116199919193306E-35    4.2048379767602553E-35   5.35434574525453E-35     1.0187426936465436E-35   2.633886648439057E-35    -1.3732834422104478E-35  9.052931837568733E-36    2.5246690749991976E-35   2.944499082929558E-35    4.438996183357621E-35    2.6340075806821276E-35   8.285869408483652E-35    5.356423092325389E-35    2.0370086476194283E-35   1.1744920600146841E-35   -1.4641715611366038E-35  8.951956824685928E-35    -8.026962737873832E-35   1.0422699881625929E-34   3.8486863778800965E-34
2.628877820417244E-34    9.045366416234407E-34    2.8754721904946503E-34   1.1657810903872214E-34   -4.87802845915276E-35    -7.451366585293002E-35   -2.9954787299045433E-35  1.9292548221541875E-34   4.010606987067452E-34    2.352178329527508E-34    4.238476283404925E-34    1.3790584093521665E-34   1.4106738866957574E-34   8.352862239184226E-35    -3.8110321238064524E-35  1.0568035448201937E-34   4.5803101613870486E-35   3.6750368352214435E-34   3.6313578944708017E-34   5.62955279296177E-34     9.419865116175656E-34    2.985636113393351E-34    9.35038587768458E-34     2.4131477542304255E-34   -8.712051327501322E-35   -2.012419877449036E-34   -1.3063150848968988E-34  -2.1387349355491032E-34  -9.97776064568703E-35    -1.9457659196965787E-34  7.375034198367846E-34    2.2554957965006592E-34   6.529642003219889E-34    3.6920786494009195E-34   3.722025137668384E-34    2.45388471039773E-34     2.2657310325881078E-34   7.676791055342716E-35    -2.454575143714751E-35   3.3772967914801805E-34   -1.4479848571030929E-34  8.944075561373782E-34    3.821105263968805E-34    2.441165845958968E-34    6.250234229461525E-35    -4.4725167638601376E-35  4.276608769465297E-35    2.1642840927628637E-34   3.1737239464526942E-34   7.020971434920492E-34    -1.1056170189431002E-34  2.2091011511719283E-34   2.3164539142420469E-35   4.173380887768116E-36    1.0271768762088184E-34   9.746278239410589E-35    1.003942930877918E-34    1.092134640411242E-34    6.863943923804479E-35    4.049996036405553E-35    -6.967802831196538E-35   1.5144331313133285E-34   5.324601586517021E-35    5.932537607584039E-35    1.2881529714647378E-34   1.3960500196780686E-34   1.7659734124034436E-34   1.107349684077661E-34    6.122265091265577E-34    2.0477220761303253E-34   3.0279033739819024E-34   1.5625498456889176E-34   -2.1069720727949324E-35  2.704721209514699E-35    2.6857186461837784E-35   1.683852032023865E-35    -4.319036662056661E-36   -2.0891323425015266E-35  4.894529494975466E-35    5.953103647042574E-35    1.6675821038929035E-34   2.147845357800186E-34    1.4548720222009157E-34   1.1145587043703057E-34   1.3060335156120315E-34   9.436182572315566E-35    1.1904300173622178E-34   2.330388024274907E-34    -5.276934182662783E-35   1.6089694708869456E-34   4.0729819977792785E-34   1.6089694708869304E-34   -5.276934182663092E-35   2.3303880242749274E-34   1.1904300173622155E-34   9.436182572315428E-35    1.306033515612023E-34    1.1145587043703113E-34   1.4548720222009922E-34   2.1478453578002714E-34   1.6675821038929822E-34   5.953103647042965E-35    4.894529494975557E-35    -2.089132342501511E-35   -4.3190366620561894E-36  1.6838520320240228E-35   2.685718646183714E-35    2.704721209514646E-35    -2.1069720727952777E-35  1.562549845688793E-34    3.0279033739817946E-34   2.0477220761303206E-34   6.122265091265714E-34    1.1073496840778167E-34   1.7659734124034331E-34   1.3960500196780545E-34   1.288152971464728E-34    5.932537607584151E-35    5.324601586516976E-35    1.5144331313133223E-34   4.176028080554745E-35    4.049996036404987E-35    6.863943923803667E-35    1.0921346404112654E-34   1.003942930877901E-34    9.74627823941087E-35     1.0271768762089012E-34   4.173380887775794E-36    2.3164539142426172E-35   2.2091011511720198E-34   -1.1056170189430906E-34  7.020971434920153E-34    3.1737239464526955E-34   2.1642840927630327E-34   4.2766087694649395E-35   -4.4725167638604236E-35  6.250234229461643E-35    2.4411658459590293E-34   3.821105263969057E-34    8.944075561373709E-34    -1.447984857103016E-34   3.3772967914801933E-34   -2.454575143716586E-35   7.676791055342398E-35    2.265731032587665E-34    2.4538847103974736E-34   3.722025137668313E-34    3.6920786494013903E-34   6.529642003219826E-34    2.2554957965007922E-34   7.375034198367698E-34    -1.945765919696393E-34   -9.977760645686987E-35   -2.138734935549059E-34   -1.3063150848969097E-34  -2.0124198774489856E-34  -8.712051327501241E-35   2.413147754230428E-34    9.350385877685158E-34    2.985636113393532E-34    9.419865116176186E-34    5.629552792961634E-34    3.6313578944705293E-34   3.6750368352211604E-34   4.580310161389002E-35    1.05680354482005E-34     -3.811032123806522E-35   8.352862239182823E-35    1.4106738866957606E-34   1.3790584093521066E-34   4.238476283404972E-34    2.3521783295275488E-34   4.01060698706733E-34     1.929254822154258E-34    -2.995478729904173E-35   -7.451366585293039E-35   -4.87802845915273E-35    1.1657810903871793E-34   2.8754721904943364E-34   9.04536641623343E-34     -2.4267497210595967E-34